ITEM: TIMESTEP
0
ITEM: NUMBER OF ATOMS
200
ITEM: BOX BOUNDS pp pp pp
-1.0000000000000000e+02 1.0000000000000000e+02
-1.0000000000000000e+02 1.0000000000000000e+02
-1.0000000000000000e+02 1.0000000000000000e+02
ITEM: ATOMS id type xs ys zs
1 1 0.193292 0.656483 0.512661
2 1 0.290766 0.910704 0.202697
3 1 0.733685 0.0460212 0.478595
4 1 0.741547 0.183129 0.85312
5 1 0.380437 0.00151895 0.529045
6 1 0.662664 0.401812 0.248875
7 1 0.83643 0.881782 0.103835
8 1 0.1493 0.287201 0.993978
9 1 0.78112 0.288291 0.298548
10 1 0.700777 0.950816 0.362545
11 1 0.296955 0.921453 0.86342
12 1 0.499302 0.772205 0.453312
13 1 0.813704 0.923938 0.626656
14 1 0.206685 0.760214 0.918935
15 1 0.534095 0.532165 0.0956366
16 1 0.364997 0.506264 0.778805
17 1 0.37354 0.0845377 0.825834
18 1 0.787208 0.605883 0.074184
19 1 0.81099 0.30746 0.473121
20 1 0.738742 0.0299901 0.0441091
21 1 0.341112 0.0697926 0.0037572
22 1 0.147201 0.0113133 0.143026
23 1 0.845127 0.0448704 0.136154
24 1 0.33273 0.187617 0.277828
25 1 0.455371 0.415264 0.347525
26 1 0.852484 0.696089 0.164666
27 1 0.544528 0.886116 0.954012
28 1 0.0795976 0.796579 0.0996604
29 1 0.991589 0.64447 0.605568
30 1 0.787072 0.326672 0.376445
31 1 0.91785 0.298741 0.932707
32 1 0.00658076 0.602767 0.703533
33 1 0.283211 0.935251 0.761746
34 1 0.672495 0.621288 0.983854
35 1 0.640846 0.695167 0.670224
36 1 0.451545 0.114973 0.347733
37 1 0.354917 0.0924253 0.391639
38 1 0.275616 0.281901 0.9122
39 1 0.345112 0.298078 0.789311
40 1 0.952302 0.343682 0.262147
41 1 0.905869 0.933859 0.366976
42 1 0.75927 0.0576547 0.00190566
43 1 0.0283596 0.640375 0.774365
44 1 0.747129 0.995532 0.910558
45 1 0.740835 0.207047 0.835872
46 1 0.493097 0.479347 0.381478
47 1 0.498643 0.695099 0.524099
48 1 0.531698 0.249169 0.787814
49 1 0.789602 0.833343 0.989862
50 1 0.611019 0.399045 0.745747
51 1 0.766876 0.886886 0.900165
52 1 0.0741482 0.207999 0.847034
53 1 0.105467 0.580677 0.445416
54 1 0.114639 0.741611 0.258817
55 1 0.932873 0.798341 0.710251
56 1 0.189224 0.28907 0.402043
57 1 0.13102 0.051634 0.812171
58 1 0.163373 0.813143 0.488232
59 1 0.723137 0.762087 0.401663
60 1 0.754493 0.770282 0.131518
61 1 0.427039 0.239228 0.710131
62 1 0.169121 0.412884 0.334304
63 1 0.652218 0.836149 0.161792
64 1 0.242259 0.646748 0.89644
65 1 0.466301 0.123356 0.244787
66 1 0.134182 0.189973 0.881589
67 1 0.861636 0.515957 0.692797
68 1 0.838426 0.428746 0.942007
69 1 0.313568 0.129978 0.545956
70 1 0.875315 0.425322 0.378662
71 1 0.173347 0.449362 0.434502
72 1 0.67302 0.44296 0.827129
73 1 0.55868 0.740317 0.515519
74 1 0.334476 0.536165 0.32724
75 1 0.922573 0.688022 0.578829
76 1 0.385969 0.983975 0.66174
77 1 0.85667 0.0540997 0.25401
78 1 0.139948 0.11299 0.0275376
79 1 0.824156 0.592368 0.936434
80 1 0.654342 0.53013 0.892924
81 1 0.37017 0.438866 0.0174245
82 1 0.853041 0.0569978 0.961544
83 1 0.669062 0.925356 0.461965
84 1 0.250467 0.591828 0.858159
85 1 0.0816077 0.580597 0.0858979
86 1 0.685461 0.541093 0.1444
87 1 0.936062 0.398084 0.589968
88 1 0.599257 0.710412 0.899089
89 1 0.985139 0.233642 0.821898
90 1 0.642053 0.992519 0.267648
91 1 0.363629 0.510161 0.268971
92 1 0.589414 0.281659 0.843654
93 1 0.294408 0.115729 0.0595806
94 1 0.371166 0.19171 0.0713634
95 1 0.40394 0.0179884 0.330328
96 1 0.820785 0.937219 0.835764
97 1 0.68213 0.555935 0.599159
98 1 0.068667 0.0857322 0.901097
99 1 0.736818 0.705739 0.354578
100 1 0.396331 0.137126 0.67728
101 1 0.0466862 0.654674 0.097629
102 1 0.85004 0.617457 0.593763
103 1 0.376473 0.382133 0.514947
104 1 0.707236 0.508357 0.953592
105 1 0.0193438 0.110979 0.22685
106 1 0.66243 0.459161 0.115031
107 1 0.321295 0.998073 0.61648
108 1 0.1748 0.856114 0.709884
109 1 0.027234 0.721567 0.374482
110 1 0.912102 0.693232 0.143285
111 1 0.196377 0.503558 0.29395
112 1 0.422526 0.386903 0.673528
113 1 0.991781 0.868496 0.808167
114 1 0.865919 0.496617 0.643294
115 1 0.840902 0.0461224 0.179633
116 1 0.0851867 0.733092 0.0833427
117 1 0.741187 0.12379 0.535246
118 1 0.872282 0.437731 0.945729
119 1 0.862466 0.472001 0.928916
120 1 0.293807 0.0131934 0.741898
121 1 0.0863013 0.465969 0.539993
122 1 0.660574 0.274906 0.351259
123 1 0.60335 0.502273 0.698571
124 1 0.888324 0.0653167 0.778011
125 1 0.0259175 0.596069 0.1282
126 1 0.664017 0.131028 0.188595
127 1 0.723464 0.256512 0.190451
128 1 0.914887 0.508898 0.0428711
129 1 0.534208 0.441596 0.895961
130 1 0.417874 0.21355 0.132785
131 1 0.722065 0.747734 0.166267
132 1 0.448526 0.370477 0.610038
133 1 0.900949 0.246812 0.169214
134 1 0.98769 0.104959 0.0439399
135 1 0.498395 0.51977 0.771814
136 1 0.870334 0.697039 0.130491
137 1 0.158491 0.765815 0.0577364
138 1 0.374987 0.412525 0.304916
139 1 0.72946 0.0295622 0.852059
140 1 0.55916 0.803356 0.00637601
141 1 0.161614 0.248078 0.445912
142 1 0.434696 0.93343 0.164736
143 1 0.715118 0.993089 0.842053
144 1 0.379829 0.792279 0.825159
145 1 0.454837 0.440172 0.968989
146 1 0.803518 0.732402 0.483216
147 1 0.404668 0.249312 0.189461
148 1 0.264498 0.416143 0.121245
149 1 0.762095 0.528717 0.138946
150 1 0.267083 0.85776 0.370371
151 1 0.822659 0.43243 0.858934
152 1 0.110736 0.138777 0.424944
153 1 0.0415335 0.053221 0.485901
154 1 0.542931 0.0493786 0.905402
155 1 0.095711 0.614461 0.251065
156 1 0.657283 0.949801 0.308456
157 1 0.222013 0.366097 0.00020151
158 1 0.386783 0.662441 0.647127
159 1 0.258089 0.694318 0.398292
160 1 0.0872207 0.917578 0.726662
161 1 0.00378943 0.689013 0.240849
162 1 0.943877 0.73511 0.987949
163 1 0.461664 0.184466 0.313101
164 1 0.288708 0.309864 0.880587
165 1 0.0235469 0.75243 0.0887285
166 1 0.260199 0.159213 0.886826
167 1 0.891745 0.561684 0.21784
168 1 0.236186 0.579693 0.908478
169 1 0.793662 0.0747355 0.0790155
170 1 0.0138677 0.0736906 0.518216
171 1 0.65637 0.607355 0.810856
172 1 0.0618316 0.204031 0.148039
173 1 0.0889872 0.607911 0.16282
174 1 0.511018 0.671681 0.950178
175 1 0.643988 0.50843 0.186073
176 1 0.327145 0.325908 0.532325
177 1 0.781443 0.713905 0.607103
178 1 0.579178 0.237472 0.184347
179 1 0.314959 0.507555 0.470659
180 1 0.374056 0.75293 0.501528
181 1 0.174807 0.9882 0.673135
182 1 0.378257 0.359843 0.887147
183 1 0.286289 0.665219 0.343112
184 1 0.681818 0.315562 0.658512
185 1 0.612637 0.589049 0.147038
186 1 0.263796 0.618659 0.796322
187 1 0.788207 0.402555 0.739737
188 1 0.751693 0.709189 0.338434
189 1 0.0619082 0.491703 0.060322
190 1 0.832648 0.314117 0.356391
191 1 0.865944 0.922387 0.562044
192 1 0.28164 0.530599 0.782882
193 1 0.902841 0.0543037 0.68167
194 1 0.824257 0.286715 0.815265
195 1 0.161755 0.61449 0.737686
196 1 0.282336 0.221919 0.797709
197 1 0.0905332 0.591426 0.0933039
198 1 0.158284 0.275067 0.0473176
199 1 0.266761 0.446084 0.330617
200 1 0.677337 0.00165976 0.895583
ITEM: TIMESTEP
100
ITEM: NUMBER OF ATOMS
200
ITEM: BOX BOUNDS pp pp pp
-1.0000000000000000e+02 1.0000000000000000e+02
-1.0000000000000000e+02 1.0000000000000000e+02
-1.0000000000000000e+02 1.0000000000000000e+02
ITEM: ATOMS id type xs ys zs
1 1 0.193242 0.656103 0.512796
2 1 0.290497 0.910971 0.202957
3 1 0.73362 0.0457973 0.4782
4 1 0.741393 0.183138 0.853048
5 1 0.380531 0.00123594 0.528778
6 1 0.662682 0.401454 0.248863
7 1 0.836755 0.881636 0.103985
8 1 0.149525 0.28741 0.994255
9 1 0.780774 0.288274 0.298715
10 1 0.700617 0.950788 0.3624
11 1 0.296631 0.921357 0.863616
12 1 0.499403 0.771847 0.453064
13 1 0.81352 0.924066 0.626379
14 1 0.20702 0.760437 0.919203
15 1 0.53447 0.532008 0.0959707
16 1 0.365081 0.506304 0.778679
17 1 0.373742 0.0849506 0.825756
18 1 0.787054 0.605623 0.07419
19 1 0.810781 0.307576 0.473104
20 1 0.738986 0.0296921 0.0442676
21 1 0.341332 0.0696484 0.00400576
22 1 0.146952 0.0114721 0.143122
23 1 0.845074 0.0450457 0.136049
24 1 0.332882 0.187845 0.277843
25 1 0.455033 0.41491 0.347129
26 1 0.852452 0.696487 0.164353
27 1 0.544723 0.885992 0.954133
28 1 0.0798543 0.796343 0.0994465
29 1 0.991223 0.644162 0.605353
30 1 0.787351 0.326318 0.376524
31 1 0.91826 0.298891 0.932611
32 1 0.00697626 0.603063 0.703723
33 1 0.282914 0.935435 0.761478
34 1 0.672328 0.621625 0.983666
35 1 0.64117 0.694871 0.670058
36 1 0.451615 0.115157 0.348097
37 1 0.354821 0.0920493 0.391794
38 1 0.275286 0.281907 0.912315
39 1 0.345116 0.297917 0.789125
40 1 0.952578 0.34371 0.261951
41 1 0.905914 0.933689 0.366858
42 1 0.75946 0.0580161 0.00187179
43 1 0.0286827 0.640743 0.774593
44 1 0.746803 0.995908 0.910759
45 1 0.74061 0.206772 0.835788
46 1 0.492914 0.479219 0.381784
47 1 0.498901 0.695066 0.524084
48 1 0.531941 0.249054 0.78809
49 1 0.789615 0.833595 0.989443
50 1 0.611424 0.399207 0.746114
51 1 0.767147 0.886932 0.899831
52 1 0.0737896 0.207674 0.847254
53 1 0.105418 0.581073 0.445596
54 1 0.11433 0.741552 0.259181
55 1 0.932514 0.797987 0.709917
56 1 0.189337 0.288688 0.401796
57 1 0.130903 0.0517879 0.812169
58 1 0.16369 0.812894 0.488481
59 1 0.723528 0.761773 0.401541
60 1 0.754245 0.770231 0.131608
61 1 0.427156 0.238871 0.709759
62 1 0.168952 0.413033 0.334192
63 1 0.652271 0.835845 0.161485
64 1 0.242183 0.647136 0.896336
65 1 0.466164 0.123293 0.244924
66 1 0.134102 0.189863 0.88161
67 1 0.862062 0.516067 0.693122
68 1 0.838791 0.429044 0.942098
69 1 0.313624 0.12988 0.545848
70 1 0.874983 0.425348 0.378836
71 1 0.172997 0.449399 0.434447
72 1 0.673287 0.443281 0.826708
73 1 0.558797 0.739976 0.515393
74 1 0.334267 0.535919 0.327103
75 1 0.922716 0.687663 0.578534
76 1 0.385684 0.984265 0.661748
77 1 0.856401 0.0540337 0.254303
78 1 0.139839 0.113079 0.0274895
79 1 0.82422 0.591987 0.936748
80 1 0.654072 0.530129 0.892896
81 1 0.370248 0.438752 0.0173102
82 1 0.852854 0.0568414 0.961476
83 1 0.668758 0.925257 0.462024
84 1 0.250496 0.59203 0.858107
85 1 0.0819511 0.580668 0.0858863
86 1 0.685459 0.541459 0.144751
87 1 0.936175 0.39847 0.590164
88 1 0.599455 0.710264 0.899069
89 1 0.985376 0.233324 0.822248
90 1 0.641834 0.992756 0.267895
91 1 0.364051 0.50986 0.268907
92 1 0.589459 0.281557 0.843626
93 1 0.294472 0.116113 0.0597115
94 1 0.37112 0.191386 0.0715792
95 1 0.403727 0.0180028 0.330528
96 1 0.820476 0.936905 0.836097
97 1 0.681778 0.556292 0.598736
98 1 0.0689194 0.0854321 0.900782
99 1 0.736784 0.706063 0.354808
100 1 0.396501 0.137187 0.677029
101 1 0.0463464 0.654763 0.0978411
102 1 0.849982 0.617087 0.593806
103 1 0.376476 0.382285 0.514891
104 1 0.707453 0.507981 0.953432
105 1 0.0191169 0.110681 0.227116
106 1 0.662264 0.459092 0.114986
107 1 0.321604 0.998202 0.616743
108 1 0.174658 0.856268 0.709565
109 1 0.0272726 0.72157 0.374389
110 1 0.912013 0.69341 0.143061
111 1 0.196713 0.503452 0.293791
112 1 0.422213 0.387085 0.673737
113 1 0.99217 0.868135 0.80848
114 1 0.866291 0.496324 0.643635
115 1 0.84112 0.0464495 0.179435
116 1 0.0851055 0.733314 0.0832986
117 1 0.741429 0.123979 0.535529
118 1 0.872388 0.43757 0.945578
119 1 0.862286 0.471839 0.929137
120 1 0.293788 0.0132522 0.741635
121 1 0.0861566 0.465795 0.53988
122 1 0.660249 0.274994 0.351006
123 1 0.603078 0.502381 0.698757
124 1 0.888125 0.0654791 0.778055
125 1 0.0259841 0.596419 0.128068
126 1 0.663815 0.130797 0.188742
127 1 0.723101 0.25652 0.190031
128 1 0.91528 0.509293 0.0427954
129 1 0.534357 0.442004 0.895587
130 1 0.41773 0.213398 0.13255
131 1 0.722298 0.747665 0.165861
132 1 0.448507 0.370112 0.610259
133 1 0.901003 0.246786 0.169367
134 1 0.987531 0.105345 0.0437846
135 1 0.498456 0.51968 0.77174
136 1 0.870098 0.697332 0.130327
137 1 0.158313 0.766081 0.0575766
138 1 0.375347 0.412807 0.304623
139 1 0.729712 0.0295138 0.852268
140 1 0.558925 0.803452 0.0061267
141 1 0.161946 0.247762 0.446232
142 1 0.434551 0.933329 0.165065
143 1 0.715112 0.993407 0.842001
144 1 0.380218 0.792609 0.825128
145 1 0.454485 0.439934 0.969165
146 1 0.803434 0.732723 0.483245
147 1 0.404655 0.249478 0.189181
148 1 0.264418 0.415901 0.121164
149 1 0.76207 0.528957 0.138946
150 1 0.266943 0.857491 0.370694
151 1 0.822718 0.43284 0.859275
152 1 0.11059 0.139081 0.424533
153 1 0.041928 0.0530971 0.486136
154 1 0.542604 0.0493153 0.905675
155 1 0.0953749 0.614183 0.25075
156 1 0.6573 0.949742 0.308811
157 1 0.222154 0.36632 0.000477998
158 1 0.386516 0.662756 0.646864
159 1 0.258026 0.694589 0.397915
160 1 0.0874645 0.917331 0.727003
161 1 0.00399312 0.68881 0.2412
162 1 0.944033 0.735032 0.988131
163 1 0.461798 0.184757 0.312829
164 1 0.289041 0.310175 0.880562
165 1 0.0233638 0.752767 0.0890833
166 1 0.259961 0.159185 0.886629
167 1 0.891399 0.561802 0.218047
168 1 0.236292 0.579481 0.908328
169 1 0.793959 0.0747859 0.0793083
170 1 0.0141152 0.0737249 0.518191
171 1 0.656207 0.607739 0.811153
172 1 0.0620748 0.204275 0.147989
173 1 0.0894029 0.607708 0.162588
174 1 0.510755 0.671395 0.95022
175 1 0.64435 0.508353 0.185956
176 1 0.32757 0.325755 0.532345
177 1 0.781467 0.714194 0.606906
178 1 0.579117 0.237506 0.184117
179 1 0.31498 0.507386 0.470413
180 1 0.374196 0.752576 0.501787
181 1 0.175219 0.98819 0.673109
182 1 0.378053 0.359859 0.887465
183 1 0.285955 0.665106 0.342693
184 1 0.681493 0.315237 0.658154
185 1 0.612395 0.589415 0.146967
186 1 0.264062 0.618977 0.796304
187 1 0.787928 0.402892 0.740003
188 1 0.751331 0.70934 0.338522
189 1 0.0616424 0.491664 0.0606649
190 1 0.832701 0.314421 0.356654
191 1 0.866223 0.922037 0.561948
192 1 0.281782 0.53076 0.782478
193 1 0.902889 0.053974 0.681367
194 1 0.824135 0.286442 0.815416
195 1 0.161505 0.614121 0.737756
196 1 0.282053 0.221576 0.797299
197 1 0.0904193 0.591646 0.0936431
198 1 0.158126 0.274973 0.0469858
199 1 0.266726 0.44577 0.330872
200 1 0.67721 0.00201671 0.895831
ITEM: TIMESTEP
200
ITEM: NUMBER OF ATOMS
200
ITEM: BOX BOUNDS pp pp pp
-1.0000000000000000e+02 1.0000000000000000e+02
-1.0000000000000000e+02 1.0000000000000000e+02
-1.0000000000000000e+02 1.0000000000000000e+02
ITEM: ATOMS id type xs ys zs
1 1 0.193182 0.655648 0.512959
2 1 0.290175 0.911291 0.203269
3 1 0.733543 0.0455288 0.477727
4 1 0.741209 0.183148 0.852963
5 1 0.380644 0.000896593 0.528458
6 1 0.662703 0.401025 0.248849
7 1 0.837145 0.881462 0.104165
8 1 0.149795 0.28766 0.994588
9 1 0.780358 0.288255 0.298915
10 1 0.700426 0.950755 0.362226
11 1 0.296243 0.921242 0.86385
12 1 0.499525 0.771417 0.452766
13 1 0.8133 0.92422 0.626047
14 1 0.207421 0.760704 0.919524
15 1 0.53492 0.531821 0.0963713
16 1 0.365182 0.506351 0.778528
17 1 0.373985 0.0854455 0.825663
18 1 0.786868 0.60531 0.0741971
19 1 0.81053 0.307716 0.473084
20 1 0.739279 0.0293348 0.0444578
21 1 0.341595 0.0694755 0.00430381
22 1 0.146653 0.0116624 0.143236
23 1 0.84501 0.0452559 0.135924
24 1 0.333066 0.188119 0.277861
25 1 0.454628 0.414485 0.346654
26 1 0.852414 0.696965 0.163978
27 1 0.544957 0.885843 0.954278
28 1 0.080162 0.79606 0.0991901
29 1 0.990783 0.643794 0.605094
30 1 0.787684 0.325893 0.376619
31 1 0.918752 0.299072 0.932495
32 1 0.00745049 0.603417 0.703951
33 1 0.282558 0.935656 0.761156
34 1 0.672128 0.622028 0.983441
35 1 0.64156 0.694517 0.669859
36 1 0.4517 0.115379 0.348533
37 1 0.354706 0.0915985 0.39198
38 1 0.274891 0.281915 0.912453
39 1 0.345121 0.297724 0.788901
40 1 0.952909 0.343743 0.261717
41 1 0.905968 0.933485 0.366718
42 1 0.759688 0.0584496 0.00183118
43 1 0.0290701 0.641186 0.774866
44 1 0.746411 0.996359 0.911
45 1 0.740341 0.206443 0.835688
46 1 0.492694 0.479066 0.382151
47 1 0.499209 0.695027 0.524065
48 1 0.532232 0.248916 0.788422
49 1 0.789632 0.833898 0.98894
50 1 0.61191 0.399401 0.746554
51 1 0.767472 0.886987 0.899431
52 1 0.0733597 0.207285 0.847518
53 1 0.10536 0.581547 0.445811
54 1 0.113959 0.741481 0.259617
55 1 0.932083 0.797562 0.709517
56 1 0.189472 0.28823 0.401501
57 1 0.130762 0.0519725 0.812167
58 1 0.16407 0.812597 0.48878
59 1 0.723996 0.761396 0.401394
60 1 0.753947 0.77017 0.131715
61 1 0.427298 0.238442 0.709313
62 1 0.16875 0.413212 0.334057
63 1 0.652334 0.835481 0.161117
64 1 0.242092 0.647601 0.896211
65 1 0.465999 0.123216 0.245089
66 1 0.134008 0.189731 0.881635
67 1 0.862572 0.516198 0.693512
68 1 0.839229 0.429402 0.942207
69 1 0.313692 0.129763 0.545719
70 1 0.874584 0.425381 0.379044
71 1 0.172576 0.449442 0.43438
72 1 0.673607 0.443667 0.826202
73 1 0.558936 0.739567 0.515241
74 1 0.334015 0.535625 0.326939
75 1 0.922886 0.687233 0.578179
76 1 0.385341 0.984614 0.661759
77 1 0.856079 0.0539546 0.254655
78 1 0.139708 0.113186 0.0274319
79 1 0.824297 0.591529 0.937124
80 1 0.653748 0.530128 0.892863
81 1 0.370342 0.438616 0.0171732
82 1 0.85263 0.056654 0.961394
83 1 0.668394 0.925138 0.462094
84 1 0.250531 0.592271 0.858044
85 1 0.0823627 0.580753 0.0858723
86 1 0.685458 0.541897 0.145172
87 1 0.936311 0.398934 0.590399
88 1 0.599692 0.710086 0.899045
89 1 0.985659 0.232942 0.822668
90 1 0.64157 0.993041 0.268191
91 1 0.364557 0.5095 0.26883
92 1 0.589514 0.281435 0.843593
93 1 0.294548 0.116574 0.0598684
94 1 0.371065 0.190997 0.071838
95 1 0.403471 0.0180201 0.330768
96 1 0.820105 0.93653 0.836498
97 1 0.681356 0.556719 0.598229
98 1 0.0692221 0.0850722 0.900404
99 1 0.736744 0.706451 0.355085
100 1 0.396705 0.137259 0.676727
101 1 0.0459389 0.654871 0.0980954
102 1 0.849912 0.616644 0.593857
103 1 0.37648 0.382466 0.514823
104 1 0.707714 0.507529 0.95324
105 1 0.0188448 0.110324 0.227435
106 1 0.662066 0.459009 0.114932
107 1 0.321975 0.998356 0.61706
108 1 0.174488 0.856453 0.709182
109 1 0.0273189 0.721575 0.374277
110 1 0.911908 0.693624 0.142792
111 1 0.197115 0.503326 0.2936
112 1 0.421839 0.387303 0.673986
113 1 0.992635 0.867703 0.808855
114 1 0.866737 0.495972 0.644045
115 1 0.841382 0.0468416 0.179197
116 1 0.0850082 0.73358 0.0832457
117 1 0.74172 0.124206 0.535869
118 1 0.872515 0.437377 0.945398
119 1 0.862071 0.471645 0.929402
120 1 0.293766 0.0133227 0.741318
121 1 0.0859831 0.465587 0.539744
122 1 0.659858 0.275099 0.350704
123 1 0.602752 0.502512 0.69898
124 1 0.887887 0.0656737 0.778108
125 1 0.0260639 0.596839 0.12791
126 1 0.663572 0.130521 0.188917
127 1 0.722666 0.256531 0.189527
128 1 0.915752 0.509766 0.0427046
129 1 0.534536 0.442493 0.895138
130 1 0.417557 0.213216 0.132268
131 1 0.722578 0.747581 0.165374
132 1 0.448484 0.369673 0.610525
133 1 0.901069 0.246755 0.169551
134 1 0.98734 0.105807 0.0435982
135 1 0.498529 0.519571 0.771652
136 1 0.869816 0.697683 0.130131
137 1 0.158099 0.766399 0.0573851
138 1 0.375778 0.413145 0.304271
139 1 0.730014 0.0294557 0.852519
140 1 0.558643 0.803567 0.00582776
141 1 0.162344 0.247384 0.446616
142 1 0.434376 0.933207 0.165459
143 1 0.715105 0.993789 0.841939
144 1 0.380684 0.793006 0.82509
145 1 0.454063 0.439649 0.969376
146 1 0.803333 0.733108 0.483279
147 1 0.40464 0.249678 0.188845
148 1 0.264321 0.41561 0.121068
149 1 0.762041 0.529245 0.138945
150 1 0.266776 0.857168 0.37108
151 1 0.822789 0.433331 0.859683
152 1 0.110414 0.139446 0.424039
153 1 0.0424011 0.0529486 0.486418
154 1 0.542211 0.0492395 0.906002
155 1 0.0949719 0.613848 0.250372
156 1 0.657321 0.949671 0.309238
157 1 0.222323 0.366587 0.000809515
158 1 0.386196 0.663134 0.64655
159 1 0.257951 0.694914 0.397463
160 1 0.087757 0.917035 0.727413
161 1 0.00423735 0.688567 0.241622
162 1 0.944221 0.734939 0.988348
163 1 0.461959 0.185106 0.312503
164 1 0.28944 0.310549 0.880532
165 1 0.0231444 0.753172 0.0895086
166 1 0.259677 0.159153 0.886393
167 1 0.890984 0.561944 0.218296
168 1 0.236418 0.579227 0.908148
169 1 0.794315 0.0748464 0.0796593
170 1 0.014412 0.0737661 0.518162
171 1 0.656013 0.6082 0.811509
172 1 0.0623663 0.204568 0.14793
173 1 0.0899014 0.607465 0.16231
174 1 0.510439 0.671052 0.950271
175 1 0.644783 0.50826 0.185816
176 1 0.32808 0.325573 0.53237
177 1 0.781496 0.71454 0.60667
178 1 0.579045 0.237548 0.183843
179 1 0.315006 0.507184 0.470118
180 1 0.374364 0.752151 0.502097
181 1 0.175712 0.988178 0.673078
182 1 0.377808 0.359877 0.887846
183 1 0.285555 0.66497 0.34219
184 1 0.681102 0.314846 0.657725
185 1 0.612106 0.589853 0.146883
186 1 0.26438 0.619359 0.796281
187 1 0.787593 0.403297 0.740322
188 1 0.750897 0.709521 0.338628
189 1 0.0613236 0.491617 0.0610759
190 1 0.832764 0.314785 0.35697
191 1 0.866557 0.921616 0.561833
192 1 0.281951 0.530953 0.781993
193 1 0.902947 0.0535788 0.681003
194 1 0.823988 0.286115 0.815597
195 1 0.161204 0.613679 0.73784
196 1 0.281715 0.221164 0.796808
197 1 0.0902827 0.59191 0.0940499
198 1 0.157938 0.27486 0.046588
199 1 0.266685 0.445393 0.331178
200 1 0.677057 0.00244471 0.896129
ITEM: TIMESTEP
300
ITEM: NUMBER OF ATOMS
200
ITEM: BOX BOUNDS pp pp pp
-1.0000000000000000e+02 1.0000000000000000e+02
-1.0000000000000000e+02 1.0000000000000000e+02
-1.0000000000000000e+02 1.0000000000000000e+02
ITEM: ATOMS id type xs ys zs
1 1 0.193105 0.655063 0.513168
2 1 0.289761 0.911702 0.203669
3 1 0.733443 0.045184 0.47712
4 1 0.740972 0.183161 0.852853
5 1 0.38079 0.000460684 0.528046
6 1 0.66273 0.400474 0.248832
7 1 0.837645 0.881238 0.104396
8 1 0.150142 0.287981 0.995015
9 1 0.779824 0.28823 0.299171
10 1 0.70018 0.950712 0.362003
11 1 0.295745 0.921095 0.864151
12 1 0.499681 0.770865 0.452384
13 1 0.813017 0.924417 0.62562
14 1 0.207936 0.761047 0.919936
15 1 0.535498 0.53158 0.0968859
16 1 0.365312 0.506413 0.778334
17 1 0.374296 0.0860814 0.825544
18 1 0.786631 0.604909 0.0742063
19 1 0.810208 0.307896 0.473058
20 1 0.739655 0.0288758 0.044702
21 1 0.341934 0.0692534 0.00468666
22 1 0.146269 0.0119069 0.143383
23 1 0.844928 0.045526 0.135763
24 1 0.333301 0.188471 0.277885
25 1 0.454108 0.413939 0.346044
26 1 0.852365 0.697579 0.163497
27 1 0.545257 0.885652 0.954464
28 1 0.0805574 0.795696 0.0988607
29 1 0.990218 0.64332 0.604762
30 1 0.788113 0.325347 0.376741
31 1 0.919384 0.299304 0.932346
32 1 0.00805966 0.603873 0.704243
33 1 0.2821 0.935939 0.760743
34 1 0.671872 0.622547 0.983151
35 1 0.64206 0.694061 0.669604
36 1 0.451809 0.115663 0.349093
37 1 0.354557 0.0910193 0.392218
38 1 0.274382 0.281924 0.912631
39 1 0.345127 0.297477 0.788614
40 1 0.953334 0.343785 0.261415
41 1 0.906037 0.933222 0.366537
42 1 0.75998 0.0590063 0.00177901
43 1 0.0295677 0.641754 0.775217
44 1 0.745908 0.996938 0.91131
45 1 0.739995 0.20602 0.835559
46 1 0.492412 0.478869 0.382622
47 1 0.499606 0.694977 0.524041
48 1 0.532606 0.248738 0.788847
49 1 0.789653 0.834287 0.988295
50 1 0.612534 0.399651 0.74712
51 1 0.767889 0.887057 0.898917
52 1 0.0728074 0.206784 0.847857
53 1 0.105285 0.582155 0.446087
54 1 0.113482 0.74139 0.260178
55 1 0.931529 0.797017 0.709003
56 1 0.189645 0.287642 0.401121
57 1 0.130581 0.0522097 0.812164
58 1 0.164559 0.812214 0.489163
59 1 0.724598 0.760912 0.401206
60 1 0.753565 0.770092 0.131853
61 1 0.427479 0.237892 0.708741
62 1 0.16849 0.413442 0.333884
63 1 0.652414 0.835012 0.160645
64 1 0.241976 0.648198 0.896051
65 1 0.465787 0.123119 0.2453
66 1 0.133886 0.189561 0.881667
67 1 0.863228 0.516367 0.694013
68 1 0.839791 0.429861 0.942346
69 1 0.31378 0.129612 0.545554
70 1 0.874072 0.425422 0.379312
71 1 0.172036 0.449497 0.434295
72 1 0.674018 0.444162 0.825553
73 1 0.559115 0.739041 0.515046
74 1 0.333693 0.535246 0.326729
75 1 0.923106 0.68668 0.577723
76 1 0.384901 0.985062 0.661772
77 1 0.855666 0.053853 0.255107
78 1 0.139539 0.113323 0.0273579
79 1 0.824396 0.590941 0.937607
80 1 0.653332 0.530126 0.89282
81 1 0.370463 0.438441 0.0169973
82 1 0.852343 0.0564132 0.96129
83 1 0.667927 0.924986 0.462185
84 1 0.250575 0.592582 0.857963
85 1 0.0828916 0.580863 0.0858545
86 1 0.685456 0.542461 0.145713
87 1 0.936485 0.399529 0.590701
88 1 0.599997 0.709857 0.899014
89 1 0.986023 0.232452 0.823208
90 1 0.641231 0.993406 0.268572
91 1 0.365208 0.509037 0.268732
92 1 0.589584 0.281278 0.84355
93 1 0.294647 0.117166 0.06007
94 1 0.370994 0.190498 0.0721705
95 1 0.403143 0.0180423 0.331076
96 1 0.819629 0.936047 0.837012
97 1 0.680815 0.557268 0.597578
98 1 0.069611 0.0846099 0.899919
99 1 0.736691 0.706949 0.355439
100 1 0.396967 0.137352 0.67634
101 1 0.0454155 0.65501 0.0984222
102 1 0.849823 0.616075 0.593923
103 1 0.376486 0.3827 0.514737
104 1 0.708049 0.50695 0.952994
105 1 0.0184953 0.109866 0.227845
106 1 0.661811 0.458903 0.114863
107 1 0.322451 0.998553 0.617466
108 1 0.174269 0.85669 0.708691
109 1 0.0273783 0.72158 0.374135
110 1 0.911772 0.693898 0.142447
111 1 0.197633 0.503163 0.293355
112 1 0.421358 0.387584 0.674307
113 1 0.993233 0.867148 0.809337
114 1 0.86731 0.495521 0.644571
115 1 0.841717 0.0473454 0.178892
116 1 0.0848832 0.733921 0.0831778
117 1 0.742094 0.124498 0.536306
118 1 0.872678 0.437129 0.945166
119 1 0.861794 0.471395 0.929743
120 1 0.293737 0.0134133 0.740912
121 1 0.0857602 0.465319 0.53957
122 1 0.659356 0.275234 0.350316
123 1 0.602334 0.502679 0.699267
124 1 0.887581 0.0659238 0.778176
125 1 0.0261663 0.597378 0.127707
126 1 0.66326 0.130166 0.189142
127 1 0.722108 0.256545 0.18888
128 1 0.916357 0.510374 0.0425881
129 1 0.534765 0.443122 0.894561
130 1 0.417335 0.212983 0.131905
131 1 0.722937 0.747475 0.164749
132 1 0.448455 0.36911 0.610867
133 1 0.901153 0.246715 0.169786
134 1 0.987095 0.106401 0.0433589
135 1 0.498623 0.519432 0.771539
136 1 0.869454 0.698134 0.129879
137 1 0.157823 0.766808 0.0571391
138 1 0.376332 0.41358 0.303819
139 1 0.730402 0.0293811 0.852841
140 1 0.55828 0.803715 0.00544376
141 1 0.162856 0.246898 0.447109
142 1 0.434153 0.93305 0.165965
143 1 0.715096 0.994279 0.841859
144 1 0.381282 0.793515 0.825042
145 1 0.453522 0.439283 0.969647
146 1 0.803203 0.733602 0.483324
147 1 0.40462 0.249934 0.188414
148 1 0.264197 0.415236 0.120944
149 1 0.762003 0.529615 0.138945
150 1 0.266561 0.856754 0.371577
151 1 0.82288 0.433962 0.860207
152 1 0.110189 0.139915 0.423405
153 1 0.0430088 0.0527577 0.486781
154 1 0.541707 0.0491421 0.906423
155 1 0.0944542 0.613419 0.249886
156 1 0.657347 0.94958 0.309785
157 1 0.222541 0.36693 0.00123537
158 1 0.385786 0.66362 0.646146
159 1 0.257855 0.695332 0.396883
160 1 0.0881326 0.916655 0.727939
161 1 0.00455107 0.688254 0.242163
162 1 0.944462 0.734819 0.988628
163 1 0.462166 0.185554 0.312084
164 1 0.289953 0.311028 0.880494
165 1 0.0228625 0.753692 0.090055
166 1 0.259311 0.159111 0.88609
167 1 0.890451 0.562126 0.218616
168 1 0.236581 0.5789 0.907916
169 1 0.794773 0.0749241 0.0801103
170 1 0.0147933 0.0738189 0.518124
171 1 0.655762 0.608792 0.811967
172 1 0.0627408 0.204944 0.147853
173 1 0.0905417 0.607152 0.161953
174 1 0.510034 0.670611 0.950337
175 1 0.64534 0.508141 0.185636
176 1 0.328735 0.325338 0.532401
177 1 0.781533 0.714985 0.606366
178 1 0.578951 0.237601 0.183489
179 1 0.315039 0.506925 0.469739
180 1 0.37458 0.751604 0.502497
181 1 0.176346 0.988162 0.673039
182 1 0.377493 0.359901 0.888335
183 1 0.28504 0.664796 0.341545
184 1 0.680601 0.314344 0.657173
185 1 0.611733 0.590417 0.146774
186 1 0.264789 0.619849 0.796253
187 1 0.787162 0.403817 0.740732
188 1 0.750339 0.709753 0.338764
189 1 0.0609141 0.491557 0.061604
190 1 0.832846 0.315253 0.357375
191 1 0.866986 0.921076 0.561685
192 1 0.282169 0.5312 0.781369
193 1 0.903021 0.0530711 0.680537
194 1 0.823799 0.285695 0.815829
195 1 0.160819 0.61311 0.737948
196 1 0.281279 0.220635 0.796177
197 1 0.0901072 0.59225 0.0945724
198 1 0.157696 0.274715 0.046077
199 1 0.266633 0.444909 0.331571
200 1 0.676861 0.00299449 0.896512
ITEM: TIMESTEP
400
ITEM: NUMBER OF ATOMS
200
ITEM: BOX BOUNDS pp pp pp
-1.0000000000000000e+02 1.0000000000000000e+02
-1.0000000000000000e+02 1.0000000000000000e+02
-1.0000000000000000e+02 1.0000000000000000e+02
ITEM: ATOMS id type xs ys zs
1 1 0.193003 0.654292 0.513442
2 1 0.289215 0.912244 0.204196
3 1 0.733312 0.0447297 0.47632
4 1 0.740659 0.183178 0.852708
5 1 0.380981 -0.000113457 0.527504
6 1 0.662765 0.399749 0.248809
7 1 0.838304 0.880943 0.104701
8 1 0.150599 0.288403 0.995578
9 1 0.77912 0.288196 0.299509
10 1 0.699856 0.950655 0.361709
11 1 0.295089 0.9209 0.864548
12 1 0.499886 0.770138 0.45188
13 1 0.812644 0.924677 0.625057
14 1 0.208614 0.761498 0.92048
15 1 0.536259 0.531262 0.0975637
16 1 0.365483 0.506493 0.778079
17 1 0.374706 0.0869188 0.825387
18 1 0.786317 0.604381 0.0742184
19 1 0.809783 0.308132 0.473024
20 1 0.740151 0.0282712 0.0450237
21 1 0.342379 0.0689609 0.00519092
22 1 0.145764 0.012229 0.143577
23 1 0.84482 0.0458817 0.135552
24 1 0.333611 0.188934 0.277915
25 1 0.453424 0.41322 0.34524
26 1 0.8523 0.698387 0.162862
27 1 0.545652 0.8854 0.95471
28 1 0.0810781 0.795218 0.0984269
29 1 0.989473 0.642696 0.604324
30 1 0.788678 0.324628 0.376902
31 1 0.920216 0.299609 0.932151
32 1 0.00886201 0.604473 0.704628
33 1 0.281498 0.936312 0.760198
34 1 0.671533 0.62323 0.98277
35 1 0.642719 0.693461 0.669267
36 1 0.451952 0.116038 0.34983
37 1 0.354362 0.0902566 0.392533
38 1 0.273713 0.281936 0.912865
39 1 0.345136 0.297151 0.788236
40 1 0.953893 0.343841 0.261018
41 1 0.906128 0.932877 0.3663
42 1 0.760365 0.0597397 0.0017103
43 1 0.0302231 0.642503 0.775679
44 1 0.745246 0.997701 0.911718
45 1 0.73954 0.205463 0.83539
46 1 0.492041 0.478611 0.383242
47 1 0.500128 0.694911 0.52401
48 1 0.533099 0.248505 0.789408
49 1 0.789681 0.8348 0.987445
50 1 0.613356 0.399979 0.747865
51 1 0.768439 0.887149 0.898239
52 1 0.07208 0.206124 0.848303
53 1 0.105186 0.582957 0.44645
54 1 0.112854 0.741271 0.260917
55 1 0.9308 0.796299 0.708326
56 1 0.189873 0.286867 0.400621
57 1 0.130344 0.052522 0.81216
58 1 0.165202 0.81171 0.489668
59 1 0.72539 0.760274 0.400958
60 1 0.753061 0.769988 0.132035
61 1 0.427718 0.237167 0.707987
62 1 0.168148 0.413745 0.333656
63 1 0.652521 0.834396 0.160022
64 1 0.241822 0.648984 0.89584
65 1 0.465508 0.12299 0.245578
66 1 0.133725 0.189338 0.881709
67 1 0.864092 0.516589 0.694673
68 1 0.840532 0.430465 0.94253
69 1 0.313895 0.129414 0.545335
70 1 0.873398 0.425477 0.379665
71 1 0.171324 0.44957 0.434183
72 1 0.67456 0.444814 0.824699
73 1 0.55935 0.738348 0.514789
74 1 0.333268 0.534747 0.326452
75 1 0.923395 0.685953 0.577124
76 1 0.384322 0.985651 0.66179
77 1 0.855121 0.0537192 0.255702
78 1 0.139317 0.113503 0.0272604
79 1 0.824527 0.590166 0.938243
80 1 0.652784 0.530124 0.892764
81 1 0.370622 0.438211 0.0167655
82 1 0.851964 0.056096 0.961152
83 1 0.667311 0.924784 0.462304
84 1 0.250634 0.59299 0.857857
85 1 0.0835881 0.581008 0.0858309
86 1 0.685453 0.543203 0.146425
87 1 0.936715 0.400313 0.591099