ITEM: TIMESTEP
0
ITEM: NUMBER OF ATOMS
200
ITEM: BOX BOUNDS pp pp ss
-1.0000000000000000e+02 1.0000000000000000e+02
-1.0000000000000000e+02 1.0000000000000000e+02
-9.9979697946887313e+01 9.8815515205150248e+01
ITEM: ATOMS id type xs ys zs
42 1 0.75927 0.0576547 0.00181508
21 1 0.341112 0.0697926 0.00367784
78 1 0.139948 0.11299 0.0276023
157 1 0.222013 0.366097 0.000100606
81 1 0.37017 0.438866 0.0174279
140 1 0.55916 0.803356 0.00631253
20 1 0.738742 0.0299901 0.0442743
93 1 0.294408 0.115729 0.0598396
134 1 0.98769 0.104959 0.0441041
198 1 0.158284 0.275067 0.0475022
189 1 0.0619082 0.491703 0.0605855
128 1 0.914887 0.508898 0.0430288
137 1 0.158491 0.765815 0.0579841
169 1 0.793662 0.0747355 0.0793923
94 1 0.371166 0.19171 0.0716937
85 1 0.0816077 0.580597 0.0863163
18 1 0.787208 0.605883 0.0745315
165 1 0.0235469 0.75243 0.0891641
116 1 0.0851867 0.733092 0.0837457
106 1 0.66243 0.459161 0.115626
15 1 0.534095 0.532165 0.0961141
197 1 0.0905332 0.591426 0.0937672
101 1 0.0466862 0.654674 0.0981185
28 1 0.0795976 0.796579 0.100162
7 1 0.83643 0.881782 0.104362
22 1 0.147201 0.0113133 0.143791
23 1 0.845127 0.0448704 0.136877
172 1 0.0618316 0.204031 0.148834
130 1 0.417874 0.21355 0.133488
148 1 0.264498 0.416143 0.121878
86 1 0.685461 0.541093 0.145173
149 1 0.762095 0.528717 0.139686
125 1 0.0259175 0.596069 0.128875
185 1 0.612637 0.589049 0.147827
110 1 0.912102 0.693232 0.144052
136 1 0.870334 0.697039 0.131179
60 1 0.754493 0.770282 0.132213
115 1 0.840902 0.0461224 0.180619
133 1 0.900949 0.246812 0.170138
173 1 0.0889872 0.607911 0.163704
26 1 0.852484 0.696089 0.165562
131 1 0.722065 0.747734 0.167172
63 1 0.652218 0.836149 0.162671
142 1 0.434696 0.93343 0.165632
126 1 0.664017 0.131028 0.189636
178 1 0.579178 0.237472 0.185362
147 1 0.404668 0.249312 0.190507
127 1 0.723464 0.256512 0.191503
175 1 0.643988 0.50843 0.187098
2 1 0.290766 0.910704 0.203824
105 1 0.0193438 0.110979 0.228122
167 1 0.891745 0.561684 0.219058
161 1 0.00378943 0.689013 0.242206
77 1 0.85667 0.0540997 0.255447
65 1 0.466301 0.123356 0.246168
40 1 0.952302 0.343682 0.263634
6 1 0.662664 0.401812 0.250281
91 1 0.363629 0.510161 0.270499
155 1 0.095711 0.614461 0.252485
54 1 0.114639 0.741611 0.260283
90 1 0.642053 0.992519 0.269168
24 1 0.33273 0.187617 0.27941
9 1 0.78112 0.288291 0.300255
111 1 0.196377 0.503558 0.29563
95 1 0.40394 0.0179884 0.332228
163 1 0.461664 0.184466 0.314896
138 1 0.374987 0.412525 0.306662
199 1 0.266761 0.446084 0.332518
74 1 0.334476 0.536165 0.329121
156 1 0.657283 0.949801 0.310223
36 1 0.451545 0.114973 0.349739
122 1 0.660574 0.274906 0.353285
190 1 0.832648 0.314117 0.358449
62 1 0.169121 0.412884 0.336228
25 1 0.455371 0.415264 0.349529
183 1 0.286289 0.665219 0.345089
99 1 0.736818 0.705739 0.356625
188 1 0.751693 0.709189 0.340383
37 1 0.354917 0.0924253 0.39391
30 1 0.787072 0.326672 0.378625
70 1 0.875315 0.425322 0.380855
46 1 0.493097 0.479347 0.383688
109 1 0.027234 0.721567 0.376649
150 1 0.267083 0.85776 0.372513
41 1 0.905869 0.933859 0.369098
10 1 0.700777 0.950816 0.36464
56 1 0.189224 0.28907 0.404377
159 1 0.258089 0.694318 0.400603
59 1 0.723137 0.762087 0.403995
152 1 0.110736 0.138777 0.427418
141 1 0.161614 0.248078 0.448512
71 1 0.173347 0.449362 0.437033
53 1 0.105467 0.580677 0.448014
3 1 0.733685 0.0460212 0.481393
19 1 0.81099 0.30746 0.475886
179 1 0.314959 0.507555 0.47341
12 1 0.499302 0.772205 0.455957
83 1 0.669062 0.925356 0.464663
153 1 0.0415335 0.053221 0.488744
180 1 0.374056 0.75293 0.504465
146 1 0.803518 0.732402 0.486042
58 1 0.163373 0.813143 0.491089
5 1 0.380437 0.00151895 0.532149
170 1 0.0138677 0.0736906 0.521254
117 1 0.741187 0.12379 0.538387
176 1 0.327145 0.325908 0.535449
103 1 0.376473 0.382133 0.517965
121 1 0.0863013 0.465969 0.543163
1 1 0.193292 0.656483 0.515666
47 1 0.498643 0.695099 0.527173
73 1 0.55868 0.740317 0.518542
69 1 0.313568 0.129978 0.549162
191 1 0.865944 0.922387 0.565349
87 1 0.936062 0.398084 0.593442
97 1 0.68213 0.555935 0.602688
102 1 0.85004 0.617457 0.597259
75 1 0.922573 0.688022 0.582235
132 1 0.448526 0.370477 0.613633
29 1 0.991589 0.64447 0.609136
177 1 0.781443 0.713905 0.61068
13 1 0.813704 0.923938 0.630352
107 1 0.321295 0.998073 0.620114
184 1 0.681818 0.315562 0.662401
114 1 0.865919 0.496617 0.64709
158 1 0.386783 0.662441 0.650946
76 1 0.385969 0.983975 0.665648
193 1 0.902841 0.0543037 0.685699
100 1 0.396331 0.137126 0.681283
112 1 0.422526 0.386903 0.677508
67 1 0.861636 0.515957 0.696893
35 1 0.640846 0.695167 0.674184
181 1 0.174807 0.9882 0.677112
61 1 0.427039 0.239228 0.714332
123 1 0.60335 0.502273 0.702703
32 1 0.00658076 0.602767 0.707695
55 1 0.932873 0.798341 0.714453
108 1 0.1748 0.856114 0.714084
120 1 0.293807 0.0131934 0.746293
50 1 0.611019 0.399045 0.750164
187 1 0.788207 0.402555 0.744118
195 1 0.161755 0.61449 0.742054
160 1 0.0872207 0.917578 0.730964
124 1 0.888324 0.0653167 0.782624
16 1 0.364997 0.506264 0.783423
192 1 0.28164 0.530599 0.787525
135 1 0.498395 0.51977 0.776389
43 1 0.0283596 0.640375 0.778956
33 1 0.283211 0.935251 0.766261
57 1 0.13102 0.051634 0.816991
196 1 0.282336 0.221919 0.802441
48 1 0.531698 0.249169 0.792486
39 1 0.345112 0.298078 0.793993
186 1 0.263796 0.618659 0.801046
171 1 0.65637 0.607355 0.815668
113 1 0.991781 0.868496 0.812963
17 1 0.37354 0.0845377 0.830737
45 1 0.740835 0.207047 0.840835
89 1 0.985139 0.233642 0.826777
194 1 0.824257 0.286715 0.820104
72 1 0.67302 0.44296 0.83204
144 1 0.379829 0.792279 0.830058
96 1 0.820785 0.937219 0.840727
143 1 0.715118 0.993089 0.847054
139 1 0.72946 0.0295622 0.857121
52 1 0.0741482 0.207999 0.852066
4 1 0.741547 0.183129 0.858188
92 1 0.589414 0.281659 0.848665
151 1 0.822659 0.43243 0.864038
84 1 0.250467 0.591828 0.863258
11 1 0.296955 0.921453 0.868551
200 1 0.677337 0.00165976 0.900908
98 1 0.068667 0.0857322 0.906456
166 1 0.260199 0.159213 0.892099
66 1 0.134182 0.189973 0.886829
164 1 0.288708 0.309864 0.885821
182 1 0.378257 0.359843 0.892422
129 1 0.534208 0.441596 0.901289
80 1 0.654342 0.53013 0.898233
64 1 0.242259 0.646748 0.901771
88 1 0.599257 0.710412 0.904436
51 1 0.766876 0.886886 0.905518
154 1 0.542931 0.0493786 0.910787
38 1 0.275616 0.281901 0.917626
31 1 0.91785 0.298741 0.938257
119 1 0.862466 0.472001 0.934444
168 1 0.236186 0.579693 0.913882
14 1 0.206685 0.760214 0.924402
44 1 0.747129 0.995532 0.915974
82 1 0.853041 0.0569978 0.967269
68 1 0.838426 0.428746 0.947614
118 1 0.872282 0.437731 0.951358
104 1 0.707236 0.508357 0.959269
79 1 0.824156 0.592368 0.942008
174 1 0.511018 0.671681 0.955835
27 1 0.544528 0.886116 0.959692
8 1 0.1493 0.287201 0.999899
145 1 0.454837 0.440172 0.97476
34 1 0.672495 0.621288 0.989715
162 1 0.943877 0.73511 0.993834
49 1 0.789602 0.833343 0.995759
ITEM: TIMESTEP
100
ITEM: NUMBER OF ATOMS
200
ITEM: BOX BOUNDS pp pp ss
-1.0000000000000000e+02 1.0000000000000000e+02
-1.0000000000000000e+02 1.0000000000000000e+02
-9.8975904313229648e+01 9.9734241227805640e+01
ITEM: ATOMS id type xs ys zs
42 1 0.762414 0.06364 0.00355762
21 1 0.34475 0.0674051 0.00277032
78 1 0.138135 0.114462 0.0217617
157 1 0.224352 0.369782 0.000100649
81 1 0.371469 0.436985 0.0104799
140 1 0.555263 0.804944 0.00264867
20 1 0.742787 0.0250556 0.0418844
93 1 0.295465 0.12209 0.0569948
134 1 0.985055 0.111346 0.036482
198 1 0.15568 0.273511 0.036942
189 1 0.057506 0.491054 0.0612731
128 1 0.921397 0.515436 0.0367343
137 1 0.155533 0.77021 0.0502956
169 1 0.79858 0.0755708 0.0792539
94 1 0.370402 0.186342 0.0702703
85 1 0.0872928 0.581777 0.0811082
18 1 0.784651 0.601572 0.0696112
165 1 0.0205162 0.758018 0.0900628
116 1 0.0838426 0.736761 0.0779948
106 1 0.65969 0.458019 0.109878
15 1 0.540309 0.529573 0.0966716
197 1 0.0886467 0.595075 0.0944096
101 1 0.0410596 0.656163 0.0966441
28 1 0.0838476 0.792671 0.0915897
7 1 0.841811 0.879374 0.101857
22 1 0.143075 0.0139419 0.140391
23 1 0.844247 0.0477734 0.130144
172 1 0.0658577 0.208075 0.143019
130 1 0.415487 0.211039 0.124571
148 1 0.263167 0.412125 0.115538
86 1 0.685438 0.547151 0.146034
149 1 0.761689 0.532695 0.134688
125 1 0.0270192 0.601865 0.121679
185 1 0.608636 0.595105 0.141663
110 1 0.91064 0.696183 0.135326
136 1 0.866439 0.701887 0.123457
60 1 0.750382 0.769439 0.12871
115 1 0.84451 0.0515378 0.172344
133 1 0.901851 0.246384 0.167707
173 1 0.0958706 0.604548 0.154861
26 1 0.851956 0.702686 0.155369
131 1 0.725927 0.746585 0.155427
63 1 0.653086 0.831115 0.152574
142 1 0.43229 0.931745 0.166132
126 1 0.660667 0.127209 0.187102
178 1 0.578176 0.238047 0.176569
147 1 0.404458 0.252064 0.180871
127 1 0.717458 0.256659 0.17953
175 1 0.649973 0.50715 0.180182
2 1 0.286313 0.915124 0.203189
105 1 0.0155864 0.106048 0.227605
167 1 0.886013 0.563643 0.217557
161 1 0.00716203 0.685652 0.243117
77 1 0.852222 0.0530074 0.255394
65 1 0.464024 0.122305 0.243509
40 1 0.956869 0.344139 0.255434
6 1 0.662953 0.39589 0.245146
91 1 0.37062 0.505185 0.264497
155 1 0.0901461 0.609845 0.242286
54 1 0.109514 0.740633 0.261411
90 1 0.638414 0.996447 0.268347
24 1 0.33526 0.191397 0.27473
9 1 0.775379 0.288021 0.298108
111 1 0.201939 0.501811 0.288051
95 1 0.40041 0.0182271 0.330654
163 1 0.463888 0.189284 0.305446
138 1 0.380941 0.417197 0.296852
199 1 0.266194 0.440882 0.331863
74 1 0.331009 0.532095 0.321932
156 1 0.657568 0.948822 0.311226
36 1 0.452712 0.118029 0.350894
122 1 0.65518 0.276356 0.344183
190 1 0.833525 0.31915 0.357937
62 1 0.166328 0.415356 0.329447
25 1 0.449781 0.409394 0.338025
183 1 0.280758 0.663343 0.333203
99 1 0.736256 0.711097 0.355563
188 1 0.745697 0.711687 0.336948
37 1 0.353324 0.0861997 0.39161
30 1 0.79168 0.320804 0.375053
70 1 0.869811 0.425768 0.378864
46 1 0.490066 0.477233 0.383898
109 1 0.027873 0.721625 0.370212
150 1 0.264771 0.853305 0.372999
41 1 0.906614 0.93104 0.362251
10 1 0.698135 0.950355 0.357328
56 1 0.191088 0.282746 0.395392
159 1 0.257054 0.698808 0.389446
59 1 0.729605 0.756883 0.397079
152 1 0.108313 0.143816 0.415689
141 1 0.167112 0.242853 0.448991
71 1 0.167539 0.44996 0.431249
53 1 0.104661 0.587222 0.446141
3 1 0.732615 0.0423137 0.469974
19 1 0.807527 0.30939 0.470759
179 1 0.315314 0.504767 0.464456
12 1 0.500979 0.76627 0.446964
83 1 0.664034 0.923715 0.460788
153 1 0.0480661 0.0511695 0.48782
180 1 0.376376 0.747059 0.503948
146 1 0.802121 0.737713 0.48168
58 1 0.168622 0.809031 0.490396
5 1 0.381999 0.996833 0.522873
170 1 0.0179665 0.0742587 0.516018
117 1 0.745203 0.126925 0.538294
176 1 0.334188 0.323384 0.530967
103 1 0.376529 0.384641 0.512202
121 1 0.0839051 0.463092 0.536459
1 1 0.192463 0.650192 0.513093
47 1 0.502906 0.69456 0.52209
73 1 0.560604 0.734665 0.511601
69 1 0.314507 0.128357 0.542554
191 1 0.87056 0.91658 0.558936
87 1 0.937936 0.404484 0.59191
97 1 0.676306 0.56184 0.590848
102 1 0.849081 0.61134 0.593175
75 1 0.924932 0.682082 0.572504
132 1 0.448212 0.364423 0.612538
29 1 0.985515 0.639379 0.60075
177 1 0.781839 0.718684 0.602605
13 1 0.81066 0.926059 0.620951
107 1 0.326415 0.000199616 0.619721
184 1 0.67643 0.310168 0.651666
114 1 0.872078 0.491762 0.648006
158 1 0.382366 0.667659 0.641801
76 1 0.38124 0.988787 0.661028
193 1 0.903638 0.048846 0.675891
100 1 0.399148 0.138129 0.672331
112 1 0.417356 0.38992 0.676218
67 1 0.868685 0.517771 0.697561
35 1 0.646222 0.69027 0.666657
181 1 0.181622 0.988033 0.671921
61 1 0.428989 0.233311 0.703392
123 1 0.59885 0.504072 0.701053
32 1 0.0131295 0.607665 0.706109
55 1 0.926923 0.792479 0.704146
108 1 0.172451 0.858664 0.704019
120 1 0.293496 0.0141671 0.737163
50 1 0.617728 0.401727 0.751553
187 1 0.783579 0.408142 0.743822
195 1 0.15761 0.60838 0.738489
160 1 0.0912588 0.913493 0.731916
124 1 0.885034 0.0680049 0.778645
16 1 0.366392 0.506922 0.776609
192 1 0.28398 0.53326 0.776068
135 1 0.499407 0.518275 0.770444
43 1 0.0337091 0.646484 0.778036
33 1 0.278291 0.938297 0.757064
57 1 0.129078 0.0541832 0.812256
196 1 0.277656 0.216234 0.790908
48 1 0.535721 0.247261 0.792379
39 1 0.34518 0.295418 0.786174
186 1 0.268194 0.623931 0.796027
171 1 0.653681 0.613718 0.815915
113 1 0.99821 0.862527 0.813475
17 1 0.376888 0.0913731 0.824749
45 1 0.737118 0.202499 0.834752
89 1 0.989054 0.228372 0.827916
194 1 0.822231 0.2822 0.817916
72 1 0.677441 0.448282 0.820322
144 1 0.386264 0.797754 0.824836
96 1 0.815664 0.932032 0.841596
143 1 0.715019 0.998359 0.8415
139 1 0.733631 0.0287602 0.855919
52 1 0.0682112 0.202616 0.851044
4 1 0.738999 0.183268 0.852315
92 1 0.590167 0.279972 0.843511
151 1 0.823638 0.439212 0.865029
84 1 0.250948 0.595164 0.857703
11 1 0.291597 0.919866 0.86713
200 1 0.675229 0.00757006 0.900382
98 1 0.0728471 0.0807627 0.896544
166 1 0.25627 0.158761 0.884146
66 1 0.132872 0.188148 0.882505
164 1 0.29422 0.315021 0.880734
182 1 0.374876 0.360099 0.893046
129 1 0.536671 0.448355 0.890382
80 1 0.649869 0.530114 0.893106
64 1 0.241005 0.653168 0.895372
88 1 0.602534 0.707953 0.899437
51 1 0.771362 0.88764 0.89529
154 1 0.537508 0.0483317 0.910674
38 1 0.270152 0.282002 0.914888
31 1 0.924644 0.301235 0.932
119 1 0.859487 0.469318 0.933475
168 1 0.237936 0.576181 0.906718
14 1 0.212221 0.763901 0.92421
44 1 0.741725 0.00175803 0.914666
82 1 0.849949 0.0544091 0.961498
68 1 0.844472 0.43368 0.94448
118 1 0.874035 0.435063 0.944206
104 1 0.71084 0.502125 0.951962
79 1 0.82522 0.586046 0.942584
174 1 0.506664 0.666941 0.951898
27 1 0.547754 0.884061 0.957066
8 1 0.153028 0.290652 0.999899
145 1 0.449014 0.436236 0.973055
34 1 0.669735 0.626863 0.981954
162 1 0.946468 0.733824 0.992232
49 1 0.789829 0.837526 0.984149
ITEM: TIMESTEP
200
ITEM: NUMBER OF ATOMS
200
ITEM: BOX BOUNDS pp pp ss
-1.0000000000000000e+02 1.0000000000000000e+02
-1.0000000000000000e+02 1.0000000000000000e+02
-9.7891506573346135e+01 9.9427032749538952e+01
ITEM: ATOMS id type xs ys zs
42 1 0.765557 0.0696254 0.00879136
21 1 0.348388 0.0650177 0.00146585
78 1 0.136321 0.115933 0.015613
157 1 0.226691 0.373466 0.000101359
81 1 0.372769 0.435104 0.00314075
140 1 0.551367 0.806533 0.0114918
20 1 0.746832 0.0201212 0.0393455
93 1 0.296522 0.128451 0.0540976
134 1 0.98242 0.117733 0.028636
198 1 0.153075 0.271955 0.0261389
189 1 0.0531037 0.490404 0.0619631
128 1 0.927906 0.521975 0.0302274
137 1 0.152574 0.774604 0.0424741
169 1 0.803498 0.0764061 0.0792308
94 1 0.369637 0.180975 0.068893
85 1 0.092978 0.582957 0.0759898
18 1 0.782094 0.597262 0.0647066
165 1 0.0174855 0.763605 0.091156
116 1 0.0824985 0.740429 0.0723089
106 1 0.65695 0.456876 0.104405
15 1 0.546523 0.526982 0.0974649
197 1 0.0867603 0.598724 0.0952734
101 1 0.0354331 0.657652 0.0953901
28 1 0.0880977 0.788764 0.0831509
7 1 0.847191 0.876966 0.0995996
22 1 0.138948 0.0165704 0.137487
23 1 0.843368 0.0506765 0.123815
172 1 0.0698837 0.21212 0.137698
130 1 0.413099 0.208529 0.116003
148 1 0.261837 0.408106 0.109508
86 1 0.685415 0.55321 0.147459
149 1 0.761283 0.536673 0.130136
125 1 0.0281209 0.607661 0.114827
185 1 0.604635 0.601161 0.135983
110 1 0.909178 0.699135 0.127023
136 1 0.862545 0.706735 0.116086
60 1 0.746271 0.768596 0.125624
115 1 0.848118 0.0569532 0.164739
133 1 0.902753 0.245957 0.165959
173 1 0.102754 0.601186 0.146569
26 1 0.851429 0.709283 0.145719
131 1 0.729789 0.745436 0.144215
63 1 0.653954 0.82608 0.143004
142 1 0.429885 0.930059 0.167326
126 1 0.657317 0.12339 0.185379
178 1 0.577175 0.238622 0.16847
147 1 0.404248 0.254815 0.171953
127 1 0.711452 0.256806 0.168246
175 1 0.655958 0.505869 0.173998
2 1 0.28186 0.919544 0.203487
105 1 0.0118291 0.101117 0.228182
167 1 0.88028 0.565602 0.217078
161 1 0.0105346 0.682292 0.245236
77 1 0.847774 0.051915 0.256623
65 1 0.461746 0.121254 0.242034
40 1 0.961436 0.344597 0.248456
6 1 0.663242 0.389968 0.241187
91 1 0.377612 0.50021 0.259794
155 1 0.0845812 0.605229 0.233206
54 1 0.104389 0.739656 0.263869
90 1 0.634774 0.000374425 0.268889
24 1 0.33779 0.195177 0.271426
9 1 0.769638 0.287751 0.297511
111 1 0.207502 0.500064 0.281914
95 1 0.396879 0.0184658 0.33085
163 1 0.466112 0.194103 0.29754
138 1 0.386895 0.421869 0.288526
199 1 0.265627 0.43568 0.332992
74 1 0.327542 0.528025 0.316413
156 1 0.657854 0.947843 0.313889
36 1 0.45388 0.121086 0.353974
122 1 0.649786 0.277807 0.336883
190 1 0.834402 0.324184 0.359383
62 1 0.163536 0.417828 0.324388
25 1 0.444192 0.403525 0.328264
183 1 0.275226 0.661467 0.323025
99 1 0.735694 0.716454 0.356439
188 1 0.739701 0.714185 0.33531
37 1 0.351732 0.079974 0.391478
30 1 0.796288 0.314936 0.37353
70 1 0.864307 0.426215 0.378958
46 1 0.487035 0.47512 0.386244
109 1 0.0285121 0.721683 0.365769
150 1 0.262459 0.84885 0.375549
41 1 0.90736 0.928221 0.357343
10 1 0.695493 0.949894 0.351919
56 1 0.192952 0.276422 0.38855
159 1 0.256019 0.703297 0.380376
59 1 0.736073 0.751678 0.392332
152 1 0.105891 0.148855 0.406217
141 1 0.17261 0.237628 0.452038
71 1 0.16173 0.450557 0.427868
53 1 0.103856 0.593766 0.446801
3 1 0.731544 0.0386063 0.461173
19 1 0.804063 0.311321 0.468302
179 1 0.31567 0.50198 0.458103
12 1 0.502656 0.760334 0.440455
83 1 0.659006 0.922074 0.459527
153 1 0.0545987 0.0491179 0.489712
180 1 0.378697 0.741187 0.506355
146 1 0.800724 0.743025 0.480067
58 1 0.173872 0.804919 0.492536
5 1 0.38356 0.992147 0.51658
170 1 0.0220654 0.0748269 0.51375
117 1 0.74922 0.13006 0.541357
176 1 0.341231 0.320859 0.529559
103 1 0.376585 0.387148 0.509379
121 1 0.0815088 0.460215 0.532849
1 1 0.191634 0.643902 0.51349
47 1 0.507169 0.694022 0.520017
73 1 0.562527 0.729012 0.507588
69 1 0.315447 0.126736 0.53908
191 1 0.875176 0.910774 0.555767
87 1 0.93981 0.410885 0.593878
97 1 0.670482 0.567745 0.582422
102 1 0.848123 0.605223 0.592578
75 1 0.92729 0.676142 0.566082
132 1 0.447899 0.358368 0.615084
29 1 0.979441 0.634288 0.59587
177 1 0.782235 0.723463 0.598052
13 1 0.807616 0.92818 0.615184
107 1 0.331535 0.00232602 0.623021
184 1 0.671041 0.304773 0.644757
114 1 0.878236 0.486907 0.652811
158 1 0.377949 0.672878 0.636428
76 1 0.376511 0.9936 0.660342
193 1 0.904434 0.0433883 0.670077
100 1 0.401965 0.139131 0.667355
112 1 0.412186 0.392937 0.678988
67 1 0.875735 0.519584 0.702443
35 1 0.651598 0.685373 0.663079
181 1 0.188436 0.987867 0.670732
61 1 0.430939 0.227395 0.696619
123 1 0.594351 0.505871 0.703624
32 1 0.0196782 0.612564 0.708778
55 1 0.920972 0.786617 0.698016
108 1 0.170102 0.861213 0.698131
120 1 0.293184 0.0151408 0.732439
50 1 0.624437 0.404409 0.757521
187 1 0.77895 0.413729 0.74804
195 1 0.153465 0.60227 0.739379
160 1 0.0952969 0.909407 0.737314
124 1 0.881743 0.070693 0.779384
16 1 0.367787 0.507581 0.774479
192 1 0.286319 0.53592 0.769256
135 1 0.50042 0.516781 0.769148
43 1 0.0390586 0.652594 0.781853
33 1 0.273371 0.941344 0.752402
57 1 0.127137 0.0567324 0.812455
196 1 0.272977 0.210549 0.784116
48 1 0.539743 0.245354 0.797109
39 1 0.345249 0.292759 0.783093
186 1 0.272592 0.629204 0.795832
171 1 0.650991 0.620081 0.821159
113 1 0.00463885 0.856558 0.818969
17 1 0.380236 0.0982084 0.823769
45 1 0.733402 0.197951 0.833741
89 1 0.992969 0.223102 0.834136
194 1 0.820205 0.277686 0.820719
72 1 0.681862 0.453603 0.813539
144 1 0.392698 0.803229 0.824629
96 1 0.810542 0.926845 0.847636
143 1 0.71492 0.00362937 0.841069
139 1 0.737802 0.0279581 0.859967
52 1 0.0622742 0.197233 0.855242
4 1 0.73645 0.183407 0.851633
92 1 0.59092 0.278285 0.843496
151 1 0.824616 0.445994 0.871347
84 1 0.25143 0.598499 0.857376
11 1 0.28624 0.918279 0.871033
200 1 0.673122 0.0134804 0.905406
98 1 0.0770273 0.0757932 0.892086
166 1 0.252341 0.158309 0.881579
66 1 0.131562 0.186323 0.883583
164 1 0.299733 0.320178 0.881031
182 1 0.371496 0.360354 0.899179
129 1 0.539134 0.455115 0.884881
80 1 0.645397 0.530098 0.893445
64 1 0.23975 0.659587 0.894445
88 1 0.605811 0.705494 0.899947
51 1 0.775848 0.888394 0.890505
154 1 0.532085 0.0472848 0.916181
38 1 0.264688 0.282104 0.917779
31 1 0.931438 0.303729 0.931459
119 1 0.856508 0.466635 0.938272
168 1 0.239685 0.572668 0.905095
14 1 0.217758 0.767588 0.929729
44 1 0.736321 0.0079838 0.918997
82 1 0.846858 0.0518204 0.961641
68 1 0.850517 0.438614 0.947168
118 1 0.875789 0.432395 0.942843
104 1 0.714444 0.495894 0.950495
79 1 0.826284 0.579723 0.948998
174 1 0.50231 0.6622 0.953827
27 1 0.55098 0.882005 0.96035
8 1 0.156756 0.294102 0.999899
145 1 0.443192 0.4323 0.977373
34 1 0.666975 0.632439 0.980228
162 1 0.949059 0.732539 0.996779
49 1 0.790056 0.84171 0.978561
ITEM: TIMESTEP
300
ITEM: NUMBER OF ATOMS
200
ITEM: BOX BOUNDS pp pp ss
-1.0000000000000000e+02 1.0000000000000000e+02
-1.0000000000000000e+02 1.0000000000000000e+02
-9.6807108833462621e+01 9.9412194987851549e+01
ITEM: ATOMS id type xs ys zs
42 1 0.7687 0.0756108 0.0140784
21 1 0.352026 0.0626302 0.000142638
78 1 0.134508 0.117405 0.0093629
157 1 0.229031 0.377151 0.000101927
81 1 0.374069 0.433223 0.00233017
140 1 0.54747 0.808121 0.02043
20 1 0.750877 0.0151867 0.0367158
93 1 0.297579 0.134811 0.051083
134 1 0.979785 0.12412 0.0206476
198 1 0.150471 0.270399 0.0151597
189 1 0.0487014 0.489755 0.0625695
128 1 0.934416 0.528514 0.0235929
137 1 0.149616 0.778998 0.03449
169 1 0.808417 0.0772414 0.0790893
94 1 0.368872 0.175607 0.0673955
85 1 0.0986631 0.584138 0.0706931
18 1 0.779536 0.592951 0.0596433
165 1 0.0144548 0.769193 0.0921272
116 1 0.0811544 0.744098 0.066443
106 1 0.65421 0.455734 0.0987082
15 1 0.552737 0.524391 0.098123
197 1 0.0848738 0.602373 0.0960062
101 1 0.0298065 0.659141 0.0939781
28 1 0.0923478 0.784856 0.0744812
7 1 0.852571 0.874558 0.097165
22 1 0.134822 0.019199 0.134341
23 1 0.842488 0.0535796 0.117221
172 1 0.0739098 0.216164 0.132105
130 1 0.410712 0.206019 0.107154
148 1 0.260507 0.404087 0.103239
86 1 0.685392 0.559269 0.148683
149 1 0.760876 0.540652 0.125332
125 1 0.0292226 0.613457 0.107716
185 1 0.600635 0.607217 0.130029
110 1 0.907716 0.702086 0.118426
136 1 0.858651 0.711583 0.108448
60 1 0.74216 0.767753 0.122312
115 1 0.851726 0.0623686 0.156792
133 1 0.903655 0.245529 0.163943
173 1 0.109637 0.597823 0.137953
26 1 0.850901 0.715881 0.13573
131 1 0.73365 0.744288 0.132645
63 1 0.654822 0.821045 0.1331
142 1 0.427479 0.928373 0.168287
126 1 0.653967 0.119571 0.183358
178 1 0.576174 0.239197 0.160018
147 1 0.404038 0.257566 0.162665
127 1 0.705447 0.256953 0.156569
175 1 0.661943 0.504589 0.167476
2 1 0.277407 0.923963 0.203485
105 1 0.00807174 0.0961854 0.228427
167 1 0.874548 0.567561 0.216268
161 1 0.0139072 0.678931 0.247016
77 1 0.843327 0.0508226 0.257485
65 1 0.459468 0.120203 0.240179
40 1 0.966002 0.345054 0.241019
6 1 0.66353 0.384046 0.236818
91 1 0.384604 0.495234 0.254644
155 1 0.0790163 0.600612 0.223664
54 1 0.0992638 0.738678 0.265965
90 1 0.631134 0.00430211 0.269036
24 1 0.34032 0.198957 0.267676
9 1 0.763897 0.287481 0.296462
111 1 0.213064 0.498318 0.27528
95 1 0.393349 0.0187045 0.330555
163 1 0.468336 0.198922 0.289089
138 1 0.392849 0.426541 0.279664
199 1 0.26506 0.430478 0.333639
74 1 0.324075 0.523956 0.310352
156 1 0.65814 0.946863 0.316118
36 1 0.455047 0.124143 0.356565
122 1 0.644392 0.279257 0.328988
190 1 0.835279 0.329217 0.360312
62 1 0.160744 0.4203 0.318781
25 1 0.438603 0.397655 0.31789
183 1 0.269694 0.65959 0.312236
99 1 0.735132 0.721812 0.356796
188 1 0.733705 0.716684 0.333151
37 1 0.350139 0.0737484 0.39076
30 1 0.800896 0.309069 0.371431
70 1 0.858803 0.426662 0.378488
46 1 0.484003 0.473006 0.388044
109 1 0.0291512 0.721741 0.360726
150 1 0.260148 0.844396 0.377572
41 1 0.908106 0.925403 0.35184
10 1 0.692851 0.949433 0.345916
56 1 0.194816 0.270098 0.381042
159 1 0.254984 0.707787 0.370624
59 1 0.742541 0.746473 0.38694
152 1 0.103469 0.153895 0.39602
141 1 0.178108 0.232404 0.45445
71 1 0.155921 0.451154 0.423807
53 1 0.10305 0.600311 0.446803
3 1 0.730473 0.0348988 0.451573
19 1 0.8006 0.313252 0.465116
179 1 0.316025 0.499192 0.450986
12 1 0.504334 0.754398 0.433207
83 1 0.653978 0.920433 0.457566
153 1 0.0611313 0.0470664 0.490897
180 1 0.381018 0.735316 0.508039
146 1 0.799326 0.748336 0.477718
58 1 0.179121 0.800807 0.493969
5 1 0.385122 0.987461 0.509438
170 1 0.0261642 0.075395 0.510688
117 1 0.753236 0.133195 0.543651
176 1 0.348273 0.318335 0.527344
103 1 0.376641 0.389656 0.50576
121 1 0.0791126 0.457339 0.528398
1 1 0.190805 0.637611 0.513128
47 1 0.511432 0.693483 0.517144
73 1 0.564451 0.723359 0.502767
69 1 0.316386 0.125115 0.534759
191 1 0.879791 0.904967 0.55173
87 1 0.941684 0.417286 0.594986
97 1 0.664658 0.57365 0.573022
102 1 0.847164 0.599107 0.591092
75 1 0.929648 0.670203 0.558736
132 1 0.447586 0.352314 0.616745
29 1 0.973367 0.629197 0.59004
177 1 0.782631 0.728242 0.592549
13 1 0.804571 0.930302 0.608426
107 1 0.336655 0.00445242 0.625434
184 1 0.665653 0.299378 0.6368
114 1 0.884395 0.482052 0.656705
158 1 0.373533 0.678096 0.630039
76 1 0.371781 0.998413 0.658663
193 1 0.905231 0.0379306 0.663191
100 1 0.404783 0.140134 0.661322
112 1 0.407017 0.395954 0.680781
67 1 0.882784 0.521397 0.706341
35 1 0.656975 0.680476 0.658468
181 1 0.195251 0.9877 0.668529
61 1 0.432889 0.221478 0.688723
123 1 0.589852 0.50767 0.705179
32 1 0.0262269 0.617463 0.710426
55 1 0.915022 0.780755 0.690768
108 1 0.167753 0.863763 0.691129
120 1 0.292873 0.0161145 0.726562
50 1 0.631145 0.407091 0.762435
187 1 0.774321 0.419316 0.751197
195 1 0.149319 0.596159 0.739178
160 1 0.0993351 0.905322 0.741681
124 1 0.878452 0.0733812 0.778971
16 1 0.369182 0.508239 0.771167
192 1 0.288658 0.53858 0.761211
135 1 0.501432 0.515286 0.76669
43 1 0.0444081 0.658703 0.784554
33 1 0.268451 0.944391 0.74656
57 1 0.125195 0.0592815 0.811446
196 1 0.268297 0.204863 0.77607
48 1 0.543766 0.243446 0.800711
39 1 0.345317 0.290099 0.778807
186 1 0.27699 0.634477 0.79445
171 1 0.648302 0.626444 0.825245
113 1 0.0110676 0.850589 0.823313
17 1 0.383584 0.105044 0.821549
45 1 0.729685 0.193403 0.831476
89 1 0.996884 0.217831 0.839193
194 1 0.818179 0.273171 0.822335
72 1 0.686283 0.458925 0.805458
144 1 0.399132 0.808704 0.823189
96 1 0.805421 0.921658 0.85249
143 1 0.714821 0.00889969 0.839378
139 1 0.741973 0.0271561 0.862786
52 1 0.0563372 0.191849 0.858219
4 1 0.733902 0.183546 0.849674
92 1 0.591672 0.276599 0.842224
151 1 0.825595 0.452775 0.876446
84 1 0.251911 0.601835 0.855769
11 1 0.280882 0.916692 0.873687
200 1 0.671014 0.0193907 0.909144
98 1 0.0812074 0.0708237 0.886241
166 1 0.248412 0.157858 0.877666
66 1 0.130252 0.184499 0.883358
164 1 0.305246 0.325336 0.880019
182 1 0.368116 0.360609 0.90405
129 1 0.541597 0.461875 0.877992
80 1 0.640924 0.530082 0.892458
64 1 0.238496 0.666006 0.892174
88 1 0.609088 0.703035 0.899123
51 1 0.780334 0.889148 0.884333
154 1 0.526661 0.046238 0.920394
38 1 0.259224 0.282205 0.919339
31 1 0.938232 0.306223 0.929523
119 1 0.853528 0.463951 0.941731
168 1 0.241434 0.569156 0.902104
14 1 0.223294 0.771274 0.933932
44 1 0.730916 0.0142096 0.922013
82 1 0.843766 0.0492317 0.960354
68 1 0.856563 0.443548 0.948479
118 1 0.877542 0.429727 0.940058
104 1 0.718047 0.489663 0.947593
79 1 0.827348 0.5734 0.954078
174 1 0.497956 0.657459 0.954358
27 1 0.554206 0.879949 0.962245
8 1 0.160483 0.297553 0.995292
145 1 0.43737 0.428364 0.980289
34 1 0.664215 0.638014 0.977019
162 1 0.95165 0.731253 0.999898
49 1 0.790283 0.845894 0.971443
ITEM: TIMESTEP
400
ITEM: NUMBER OF ATOMS
200
ITEM: BOX BOUNDS pp pp ss
-1.0000000000000000e+02 1.0000000000000000e+02
-1.0000000000000000e+02 1.0000000000000000e+02
-9.5975973643006256e+01 1.0001298212791563e+02
ITEM: ATOMS id type xs ys zs
42 1 0.771843 0.0815961 0.0206312
21 1 0.355664 0.0602427 0.000102047
78 1 0.132694 0.118876 0.00432115
157 1 0.23137 0.380835 0.00139428
81 1 0.375369 0.431343 0.0102272
140 1 0.543573 0.809709 0.0306305
20 1 0.754922 0.0102522 0.0351977
93 1 0.298636 0.141172 0.0491138
134 1 0.97715 0.130507 0.0138058
198 1 0.147867 0.268843 0.00533098
189 1 0.0442992 0.489105 0.0641949
128 1 0.940925 0.535052 0.018101
137 1 0.146657 0.783392 0.0275911
169 1 0.813335 0.0780767 0.0798885
94 1 0.368108 0.170239 0.0668814
85 1 0.104348 0.585318 0.0663393
18 1 0.776979 0.58864 0.0555735
165 1 0.011424 0.774781 0.0939889
116 1 0.0798103 0.747766 0.061535
106 1 0.65147 0.454592 0.0938269
15 1 0.558951 0.521799 0.0996428
197 1 0.0829873 0.606022 0.0976106
101 1 0.02418 0.66063 0.093432
28 1 0.0965978 0.780949 0.0667146
7 1 0.857952 0.87215 0.0955753
22 1 0.130695 0.0218276 0.131871
23 1 0.841609 0.0564827 0.111354
172 1 0.0779359 0.220208 0.127181
130 1 0.408324 0.203508 0.0990622
148 1 0.259176 0.400068 0.0977609
86 1 0.685369 0.565328 0.150548
149 1 0.76047 0.54463 0.121232
125 1 0.0303243 0.619253 0.101372
185 1 0.596634 0.613273 0.124749
110 1 0.906254 0.705038 0.110537
136 1 0.854757 0.716431 0.10157
60 1 0.738049 0.76691 0.119727
115 1 0.855334 0.067784 0.149388
133 1 0.904557 0.245101 0.162477
173 1 0.116521 0.59446 0.129959
26 1 0.850373 0.722478 0.126364
131 1 0.737512 0.743139 0.121701
63 1 0.65569 0.816011 0.12383
142 1 0.425074 0.926688 0.1698
126 1 0.650617 0.115751 0.181803
178 1 0.575172 0.239772 0.152091
147 1 0.403828 0.260318 0.153885
127 1 0.699441 0.2571 0.145411
175 1 0.667927 0.503309 0.16146
2 1 0.272954 0.928383 0.203874
105 1 0.00431439 0.0912542 0.228952
167 1 0.868815 0.56952 0.215787
161 1 0.0172798 0.675571 0.249006
77 1 0.838879 0.0497303 0.258504
65 1 0.457191 0.119152 0.23854
40 1 0.970569 0.345511 0.233755
6 1 0.663819 0.378124 0.232662
91 1 0.391595 0.490259 0.249622
155 1 0.0734513 0.595996 0.214357
54 1 0.0941386 0.7377 0.268189
90 1 0.627494 0.0082298 0.269284
24 1 0.34285 0.202737 0.264006
9 1 0.758155 0.287211 0.295384
111 1 0.218627 0.496571 0.268672
95 1 0.389819 0.0189432 0.330085
163 1 0.47056 0.203741 0.280592
138 1 0.398802 0.431213 0.270795
199 1 0.264493 0.425276 0.334103
74 1 0.320608 0.519886 0.304166
156 1 0.658426 0.945884 0.318253
36 1 0.456215 0.127199 0.358884
122 1 0.638998 0.280707 0.320874
190 1 0.836157 0.334251 0.360942
62 1 0.157952 0.422772 0.313015
25 1 0.433013 0.391785 0.307328
183 1 0.264162 0.657714 0.301283
99 1 0.734569 0.72717 0.356865
188 1 0.727709 0.719182 0.330793
37 1 0.348546 0.0675228 0.389597
30 1 0.805504 0.303201 0.368964
70 1 0.853299 0.427108 0.37763
46 1 0.480972 0.470893 0.389428
109 1 0.0297902 0.721798 0.355341
150 1 0.257836 0.839941 0.379227